
#(C) 2016 by FIZ Karlsruhe - Leibniz Institute for Information Infrastructure.  All rights reserved.
data_187464-ICSD
_database_code_ICSD 187464
_audit_creation_date 2013-08-01
_chemical_name_systematic Phosphorus
_chemical_formula_structural P
_chemical_formula_sum P1
_chemical_name_structure_type P(black)
_exptl_crystal_density_diffrn 3.05
_publ_section_title

;
Effect of van der Waals interactions on the structural and elastic properties
of black phosphorus
;
loop_
_citation_id
_citation_journal_full
_citation_year
_citation_journal_volume
_citation_page_first
_citation_page_last
_citation_journal_id_ASTM
primary 'Physical Review, Serie 3. B - Condensed Matter (18,1978-)' 2012 86
035105-1 035105-9 PRBMDO
loop_
_publ_author_name
'Appalakondaiah, S.'
'Vaitheeswaran, G.'
'Lebegue, S.'
'Christensen, N.E.'
'Svane, A.'
_cell_length_a 3.28
_cell_length_b 10.1
_cell_length_c 4.07
_cell_angle_alpha 90.
_cell_angle_beta 90.
_cell_angle_gamma 90.
_cell_volume 134.83
_cell_formula_units_Z 8
_symmetry_space_group_name_H-M 'C m c a'
_symmetry_Int_Tables_number 64
loop_
_symmetry_equiv_pos_site_id
_symmetry_equiv_pos_as_xyz
1 '-x, -y+1/2, z+1/2'
2 '-x, y+1/2, -z+1/2'
3 '-x, y, z'
4 '-x, -y, -z'
5 'x, y+1/2, -z+1/2'
6 'x, -y+1/2, z+1/2'
7 'x, -y, -z'
8 'x, y, z'
9 '-x+1/2, -y, z+1/2'
10 '-x+1/2, y, -z+1/2'
11 '-x+1/2, y+1/2, z'
12 '-x+1/2, -y+1/2, -z'
13 'x+1/2, y, -z+1/2'
14 'x+1/2, -y, z+1/2'
15 'x+1/2, -y+1/2, -z'
16 'x+1/2, y+1/2, z'
loop_
_atom_type_symbol
_atom_type_oxidation_number
P0+ 0
loop_
_atom_site_label
_atom_site_type_symbol
_atom_site_symmetry_multiplicity
_atom_site_Wyckoff_symbol
_atom_site_fract_x
_atom_site_fract_y
_atom_site_fract_z
_atom_site_B_iso_or_equiv
_atom_site_occupancy
_atom_site_attached_hydrogens
P1 P0+ 8 f 0 0.1059 0.0711 . 1. 0
#End of TTdata_187464-ICSD